 Gaussian 03, Revision D.02,
 Gaussian 03:  AM64L-G03RevD.02  1-Mar-2006

 ----------------------------------------------------------------------
 # UB3LYP/gen pseudo=read IRC=(Calcfc,maxpoints=15,stepsize=3) test SCF
 =(maxcycle=500) Nosymm
 ----------------------------------------------------------------------

 ---
 IRC
 ---
 Symbolic Z-matrix:
 Charge =  0 Multiplicity = 2

 SCF Done:  E(UB+HF-LYP) =  -386.903032825     A.U. after   23 cycles

  Exact polarizability:  52.121 -31.146 134.438  -8.528  18.877  45.233
 Approx polarizability:  69.968 -27.829 206.685 -19.432  21.149  61.762

 SCF Done:  E(UB+HF-LYP) =  -386.903129274     A.U. after   17 cycles
 Optimization completed.
 SCF Done:  E(UB+HF-LYP) =  -386.903229326     A.U. after   17 cycles
 SCF Done:  E(UB+HF-LYP) =  -386.903229550     A.U. after   12 cycles
 Optimization completed.
 SCF Done:  E(UB+HF-LYP) =  -386.903364673     A.U. after   16 cycles
 SCF Done:  E(UB+HF-LYP) =  -386.903364761     A.U. after   11 cycles
 Optimization completed.
 SCF Done:  E(UB+HF-LYP) =  -386.903534491     A.U. after   15 cycles
 SCF Done:  E(UB+HF-LYP) =  -386.903738215     A.U. after   15 cycles
 SCF Done:  E(UB+HF-LYP) =  -386.903975314     A.U. after   15 cycles
 SCF Done:  E(UB+HF-LYP) =  -386.903975332     A.U. after    7 cycles
 SCF Done:  E(UB+HF-LYP) =  -386.904245216     A.U. after   16 cycles
 SCF Done:  E(UB+HF-LYP) =  -386.904549625     A.U. after   16 cycles
 SCF Done:  E(UB+HF-LYP) =  -386.904885956     A.U. after   16 cycles
 SCF Done:  E(UB+HF-LYP) =  -386.904885977     A.U. after   11 cycles
 SCF Done:  E(UB+HF-LYP) =  -386.905253438     A.U. after   16 cycles
 SCF Done:  E(UB+HF-LYP) =  -386.905651132     A.U. after   16 cycles
 SCF Done:  E(UB+HF-LYP) =  -386.906078087     A.U. after   16 cycles
 SCF Done:  E(UB+HF-LYP) =  -386.906533325     A.U. after   16 cycles
 Optimization completed.
 SCF Done:  E(UB+HF-LYP) =  -386.907015789     A.U. after   16 cycles
 Optimization completed.
 SCF Done:  E(UB+HF-LYP) =  -386.907524423     A.U. after   16 cycles
 Optimization completed.

                         Z-Matrix orientation:
 ---------------------------------------------------------------------
 Center     Atomic     Atomic              Coordinates (Angstroms)
 Number     Number      Type              X           Y           Z
 ---------------------------------------------------------------------
    1          6             0        0.003828   -0.061588    0.001313
    2          1             0        0.006215    0.083683    1.085210
    3          1             0        0.920173    0.012419   -0.566882
    4          1             0       -0.925498   -0.074709   -0.544325
    5          8             0       -0.009398   -1.793094    0.339191
    6          1             0        0.869320   -1.992398    0.741318
    7         29             0       -1.198223    2.577723    1.285646
    8          8             0        0.017054    1.779693    0.222402
 ---------------------------------------------------------------------

 Alpha  occ. eigenvalues --  -19.14992 -19.11019 -10.22238  -4.33397  -2.84838
 Alpha  occ. eigenvalues --   -2.84055  -2.83556  -0.94004  -0.91367  -0.67059
 Alpha  occ. eigenvalues --   -0.45373  -0.44699  -0.40412  -0.36465  -0.35136
 Alpha  occ. eigenvalues --   -0.33303  -0.30907  -0.30900  -0.30657  -0.27158
 Alpha  occ. eigenvalues --   -0.25575  -0.25076  -0.24187
 Alpha virt. eigenvalues --   -0.11801  -0.01270  -0.00653   0.02148   0.07393
 Alpha virt. eigenvalues --    0.08946   0.09152   0.13264   0.15542   0.17751
 Alpha virt. eigenvalues --    0.18908   0.19311   0.49170   0.57523   0.58017

  Beta  occ. eigenvalues --  -19.13009 -19.10248 -10.22290  -4.32959  -2.84140
  Beta  occ. eigenvalues --   -2.83528  -2.83356  -0.92086  -0.86118  -0.66167
  Beta  occ. eigenvalues --   -0.44357  -0.43724  -0.39022  -0.34861  -0.32792
  Beta  occ. eigenvalues --   -0.31739  -0.30719  -0.30718  -0.28472  -0.24375
  Beta  occ. eigenvalues --   -0.23515  -0.23151
  Beta virt. eigenvalues --   -0.11782  -0.11239  -0.01133  -0.00635   0.02403
  Beta virt. eigenvalues --    0.08315   0.08843   0.09394   0.13465   0.16323
  Beta virt. eigenvalues --    0.17841   0.19054   0.19744   0.49796   0.57771

 Mulliken atomic charges:
              1
     1  C   -0.251786
     2  H    0.219764
     3  H    0.203823
     4  H    0.216744
     5  O   -0.601150
     6  H    0.324578
     7  Cu   0.366201
     8  O   -0.478174
 Sum of Mulliken charges=   0.00000

 Dipole moment (field-independent basis, Debye):
    X=    -1.2860    Y=     3.3716    Z=     2.5411  Tot=     4.4135
 Quadrupole moment (field-independent basis, Debye-Ang):
   XX=   -25.4235   YY=   -27.0579   ZZ=   -25.9964
   XY=   -11.5267   XZ=    -3.4089   YZ=     6.4895

 Normal termination of Gaussian 03 at Tue Sep 30 17:31:36 2008.
