 Gaussian 09, Revision D.01,
 Gaussian 09:  IA32M-G09RevD.01 24-Apr-2013

 -----------------------------------------------
 # b3lyp/gen opt pseudo=read scf=maxcyc=500 test
 -----------------------------------------------

 ---
 CuO
 ---
 Symbolic Z-matrix:
 Charge =  0 Multiplicity = 2

 SCF Done:  E(UB3LYP) =  -271.258036261     A.U. after   18 cycles
 SCF Done:  E(UB3LYP) =  -271.272013463     A.U. after   13 cycles
 SCF Done:  E(UB3LYP) =  -271.273806037     A.U. after   13 cycles
 SCF Done:  E(UB3LYP) =  -271.273820292     A.U. after   11 cycles
 Optimization completed.
    -- Stationary point found.

                         Standard orientation:
 ---------------------------------------------------------------------
 Center     Atomic      Atomic             Coordinates (Angstroms)
 Number     Number       Type             X           Y           Z
 ---------------------------------------------------------------------
      1         29           0        0.000000    0.000000    0.380580
      2          8           0        0.000000    0.000000   -1.379601
 ---------------------------------------------------------------------

 Unable to determine electronic state:  an orbital has unidentified symmetry.
 Alpha  occ. eigenvalues --  -19.15722  -4.34242  -2.85816  -2.84977  -2.84101
 Alpha  occ. eigenvalues --   -0.89901  -0.37470  -0.36934  -0.34284  -0.31442
 Alpha  occ. eigenvalues --   -0.31433  -0.29652  -0.26424  -0.25523
 Alpha virt. eigenvalues --   -0.11657  -0.00404  -0.00012   0.02653   0.09177
 Alpha virt. eigenvalues --    0.09508   0.14830   0.44379   0.77637   0.77765
 Alpha virt. eigenvalues --    0.77773   0.79408   0.99563   1.00145   1.03075

  Beta  occ. eigenvalues --  -19.13257  -4.33541  -2.84743  -2.84081  -2.83809
  Beta  occ. eigenvalues --   -0.82420  -0.34749  -0.33507  -0.31778  -0.31132
  Beta  occ. eigenvalues --   -0.31130  -0.24840  -0.23295
  Beta virt. eigenvalues --   -0.11482  -0.11107   0.00035   0.00907   0.02831
  Beta virt. eigenvalues --    0.09353   0.09535   0.15135   0.45107   0.77592
  Beta virt. eigenvalues --    0.77597   0.79640   0.80329   1.01361   1.04392

 Mulliken charges and spin densities:
               1          2
     1  Cu   0.438352  -0.007268
     2  O   -0.438352   1.007268
 Sum of Mulliken charges =   0.00000   1.00000

 Dipole moment (field-independent basis, Debye):
    X=              0.0000    Y=              0.0000    Z=              4.1903  Tot=              4.1903
 Quadrupole moment (field-independent basis, Debye-Ang):
   XX=            -18.5477   YY=            -16.9484   ZZ=            -19.6137
   XY=              0.0000   XZ=              0.0000   YZ=              0.0000

 Normal termination of Gaussian 09 at Thu Dec 19 16:07:20 2013.
