 Gaussian 09, Revision D.01,
 Gaussian 09:  IA32M-G09RevD.01 24-Apr-2013

 --------------------------------------------------------------
 # ub3lyp/gen guess=huckel pseudo=read Scan scf=maxcyc=500 test
 --------------------------------------------------------------

 -------------------
 Title Card Required
 -------------------
 Symbolic Z-matrix:
 Charge =  0 Multiplicity = 2

 SCF Done:  E(UB3LYP) =  -394.729808027     A.U. after   37 cycles

 The electronic state is 2-A'.
 Alpha  occ. eigenvalues --  -19.14010  -4.28749  -3.52167  -2.79917  -2.79427
 Alpha  occ. eigenvalues --   -2.79344  -2.32295  -2.30685  -2.27371  -0.89639
 Alpha  occ. eigenvalues --   -0.40220  -0.38003  -0.33691  -0.29222  -0.28840
 Alpha  occ. eigenvalues --   -0.27422  -0.26672  -0.26528  -0.26391  -0.25549
 Alpha  occ. eigenvalues --   -0.23572  -0.21203
 Alpha virt. eigenvalues --   -0.09537  -0.08546  -0.07311  -0.01009  -0.00226
 Alpha virt. eigenvalues --    0.02565   0.02572   0.03115   0.03923   0.07777
 Alpha virt. eigenvalues --    0.08596   0.12178   0.14392   0.16736   0.17814

  Beta  occ. eigenvalues --  -19.14481  -4.28752  -3.45633  -2.79906  -2.79459
  Beta  occ. eigenvalues --   -2.79303  -2.27087  -2.22866  -2.19577  -0.90654
  Beta  occ. eigenvalues --   -0.37204  -0.36557  -0.36103  -0.28768  -0.27510
  Beta  occ. eigenvalues --   -0.26838  -0.26800  -0.25962  -0.23050  -0.22153
  Beta  occ. eigenvalues --   -0.19985
  Beta virt. eigenvalues --   -0.09451  -0.06738  -0.04854  -0.04554  -0.01080
  Beta virt. eigenvalues --   -0.00470   0.02698   0.02912   0.03143   0.04229
  Beta virt. eigenvalues --    0.08058   0.08358   0.12340   0.14552   0.17430

 Mulliken charges and spin densities:
               1          2
     1  O   -0.512071  -0.143521
     2  Fe   0.264245   1.265170
     3  Cu   0.247826  -0.121649
 Sum of Mulliken charges =   0.00000   1.00000

 Dipole moment (field-independent basis, Debye):
    X=             -2.1214    Y=              1.0828    Z=              0.0000  Tot=              2.3818
 Quadrupole moment (field-independent basis, Debye-Ang):
   XX=            -35.0739   YY=            -25.8786   ZZ=            -33.4192
   XY=              4.6512   XZ=              0.0000   YZ=              0.0000

 SCF Done:  E(UB3LYP) =  -394.729870558     A.U. after   23 cycles
 SCF Done:  E(UB3LYP) =  -394.729866818     A.U. after   23 cycles
 SCF Done:  E(UB3LYP) =  -394.729802993     A.U. after   23 cycles
 SCF Done:  E(UB3LYP) =  -394.729684816     A.U. after   23 cycles
 SCF Done:  E(UB3LYP) =  -394.729517553     A.U. after   23 cycles
 SCF Done:  E(UB3LYP) =  -394.729280707     A.U. after   23 cycles
 SCF Done:  E(UB3LYP) =  -394.729020416     A.U. after   23 cycles
 SCF Done:  E(UB3LYP) =  -394.728725001     A.U. after   23 cycles
 SCF Done:  E(UB3LYP) =  -394.728398395     A.U. after   23 cycles
 SCF Done:  E(UB3LYP) =  -394.725507583     A.U. after   23 cycles
 SCF Done:  E(UB3LYP) =  -394.725039327     A.U. after   23 cycles
 SCF Done:  E(UB3LYP) =  -394.724563312     A.U. after   23 cycles
 SCF Done:  E(UB3LYP) =  -394.724081017     A.U. after   23 cycles
 SCF Done:  E(UB3LYP) =  -394.723593738     A.U. after   23 cycles
 SCF Done:  E(UB3LYP) =  -394.723102611     A.U. after   23 cycles
 SCF Done:  E(UB3LYP) =  -394.722608619     A.U. after   23 cycles
 SCF Done:  E(UB3LYP) =  -394.722112628     A.U. after   23 cycles
 SCF Done:  E(UB3LYP) =  -394.721615399     A.U. after   23 cycles

                         Standard orientation:
 ---------------------------------------------------------------------
 Center     Atomic      Atomic             Coordinates (Angstroms)
 Number     Number       Type             X           Y           Z
 ---------------------------------------------------------------------
      1          8           0        0.000000   -1.096628    0.000000
      2         26           0       -1.366237   -0.354909    0.000000
      3         29           0        1.224902    0.620712    0.000000
 ---------------------------------------------------------------------

 SCF Done:  E(UB3LYP) =  -394.721117620     A.U. after   23 cycles

 1\1\GINC-MARIAS-IMAC\Scan\UB3LYP\Gen\Cu1Fe1O1(2)\CERON\17-Dec-2013\1\\
 # ub3lyp/gen guess=huckel pseudo=read Scan scf=maxcyc=500 test\\Title
 Card Required\\0,2\O\Fe,1,B1\Cu,1,B2,2,A1\\B1=1.55459024\B2=2.10941773
 \A1=78.25135193,s,25,0.75\\Version=IA32M-G09RevD.01\HF=-394.729808,-39
 4.7298706,-394.7298668,-394.729803,-394.7296848,-394.7295176,-394.7292
 807,-394.7290204,-394.728725,-394.7283984,-394.7280442,-394.7276657,-3
 94.727266,-394.7268478,-394.7264138,-394.7259664,-394.7255076,-394.725
 0393,-394.7245633,-394.724081,-394.7235937,-394.7231026,-394.7226086,-

 Normal termination of Gaussian 09 at Tue Dec 17 15:26:17 2013.
